REMARK SMILES O=C(Nc1cc(Cl)cc(Cl)c1)[C@H]1CC(=O)N(C2CCCCC2)C1
REMARK SMILES IDX 2 1 3 2 1 3 12 5 16 6 14 7 23 8 13 9 15 10 17 11 19 12 20 13
REMARK SMILES IDX 18 14 21 15 22 16 4 17 11 18 5 19 9 20 6 21 8 22 10 23 7 24
REMARK H PARENT 3 4
ROOT
ATOM      1  C   UNL     1       9.749  33.549  61.504  1.00  0.00    +0.229 C 
ATOM      2  N   UNL     1      10.849  34.092  61.976  1.00  0.00    -0.326 N 
ATOM      3  O   UNL     1       9.498  32.364  61.567  1.00  0.00    -0.274 OA
ATOM      4  H   UNL     1      10.920  35.071  61.905  1.00  0.00    +0.169 HD
ENDROOT
BRANCH   1   5
ATOM      5  C   UNL     1       8.766  34.500  60.824  1.00  0.00    +0.107 C 
ATOM      6  N   UNL     1       7.569  33.236  59.181  1.00  0.00    -0.339 N 
ATOM      7  C   UNL     1       8.612  33.701  58.476  1.00  0.00    +0.223 C 
ATOM      8  C   UNL     1       7.442  33.812  60.519  1.00  0.00    +0.133 C 
ATOM      9  C   UNL     1       9.278  34.722  59.388  1.00  0.00    +0.115 C 
ATOM     10  O   UNL     1       8.946  33.413  57.359  1.00  0.00    -0.275 OA
BRANCH   6  11
ATOM     11  C   UNL     1       6.725  32.214  58.613  1.00  0.00    +0.085 C 
ATOM     12  C   UNL     1       6.435  29.668  58.459  1.00  0.00    +0.002 C 
ATOM     13  C   UNL     1       4.955  29.815  58.858  1.00  0.00    +0.000 C 
ATOM     14  C   UNL     1       7.288  30.832  58.979  1.00  0.00    +0.025 C 
ATOM     15  C   UNL     1       4.409  31.187  58.502  1.00  0.00    +0.002 C 
ATOM     16  C   UNL     1       5.276  32.339  59.062  1.00  0.00    +0.025 C 
ENDBRANCH   6  11
ENDBRANCH   1   5
BRANCH   2  17
ATOM     17  C   UNL     1      11.941  33.424  62.574  1.00  0.00    +0.044 A 
ATOM     18  C   UNL     1      13.187  34.126  62.634  1.00  0.00    +0.046 A 
ATOM     19  C   UNL     1      11.897  32.109  63.025  1.00  0.00    +0.046 A 
ATOM     20  C   UNL     1      14.292  33.471  63.172  1.00  0.00    +0.044 A 
ATOM     21  C   UNL     1      13.010  31.474  63.541  1.00  0.00    +0.044 A 
ATOM     22  C   UNL     1      14.224  32.144  63.641  1.00  0.00    +0.041 A 
ATOM     23 Cl   UNL     1      15.828  34.348  63.286  1.00  0.00    -0.084 Cl
ATOM     24 Cl   UNL     1      12.829  29.814  64.097  1.00  0.00    -0.084 Cl
ENDBRANCH   2  17
TORSDOF 3
